 Gaussian 16, Revision A.03,

 ----------------------------------
 #P CAM-B3LYP/6-311+G** Opt SCF=XQC
 ----------------------------------

 ---------------------------
 C12E8 geometry optimization
 ---------------------------
 Symbolic Z-matrix:
 Charge =  0 Multiplicity = 1

 SCF Done:  E(RCAM-B3LYP) =  -1778.42581249     A.U. after   13 cycles
 SCF Done:  E(RCAM-B3LYP) =  -1778.46077757     A.U. after   11 cycles
 SCF Done:  E(RCAM-B3LYP) =  -1778.47271536     A.U. after   11 cycles
 SCF Done:  E(RCAM-B3LYP) =  -1778.47307581     A.U. after    9 cycles
 SCF Done:  E(RCAM-B3LYP) =  -1778.47309407     A.U. after    8 cycles
 SCF Done:  E(RCAM-B3LYP) =  -1778.47309517     A.U. after    6 cycles
 Optimization completed.
    -- Stationary point found.
 Normal termination of Gaussian 16 at Wed Sep 30 05:50:45 2020.
 Gaussian 16:  ES64L-G16RevA.03 25-Dec-2016

 -------------------------------------------------------
 #P CAM-B3LYP/6-311+G** Guess=Read Geom=Check Pop=CHelpG
 -------------------------------------------------------

 -------------------------
 C12E8 charge distribution
 -------------------------
 Structure from the checkpoint file:  "C12E8.chk"
 Charge =  0 Multiplicity = 1

                         Standard orientation:
 ---------------------------------------------------------------------
 Center     Atomic      Atomic             Coordinates (Angstroms)
 Number     Number       Type             X           Y           Z
 ---------------------------------------------------------------------
      1          6           0        8.068920    0.746438   -0.000104
      2          1           0        8.076262    1.398196    0.886173
      3          1           0        8.076343    1.398131   -0.886430
      4          6           0        9.281479   -0.160583   -0.000020
      5          1           0        9.229776   -0.811735    0.877870
      6          1           0        9.229771   -0.811887   -0.877797
      7          6           0       10.595071    0.615331   -0.000092
      8          1           0       10.632365    1.273255    0.876242
      9          1           0       10.632390    1.273041   -0.876585
     10          6           0       11.824609   -0.288177    0.000036
     11          1           0       11.788931   -0.946632   -0.875741
     12          1           0       11.788930   -0.946384    0.876000
     13          6           0       13.142337    0.480428   -0.000072
     14          1           0       13.177200    1.139213    0.875843
     15          1           0       13.177207    1.138953   -0.876180
     16          6           0       14.372264   -0.422246    0.000067
     17          1           0       14.337378   -1.081117   -0.875726
     18          1           0       14.337374   -1.080856    0.876056
     19          6           0       15.690563    0.345612   -0.000045
     20          1           0       15.725471    1.004501    0.875791
     21          1           0       15.725471    1.004244   -0.876075
     22          6           0       16.920466   -0.557100    0.000087
     23          1           0       16.885529   -1.216019   -0.875697
     24          1           0       16.885529   -1.215764    0.876062
     25          6           0       18.239007    0.210406   -0.000025
     26          1           0       18.274037    0.869323    0.875809
     27          1           0       18.274035    0.869070   -0.876049
     28          6           0       19.468826   -0.692138    0.000104
     29          1           0       19.434925   -1.351365   -0.875696
     30          1           0       19.434926   -1.351112    0.876094
     31          6           0       20.788204    0.074314   -0.000008
     32          1           0       20.822237    0.732341    0.875241
     33          1           0       20.822235    0.732088   -0.875446
     34          6           0       22.010391   -0.837635    0.000122
     35          1           0       22.019476   -1.484144   -0.881630
     36          1           0       22.939589   -0.263572    0.000038
     37          1           0       22.019478   -1.483890    0.882060
     38          8           0        6.899974   -0.045651   -0.000128
     39          6           0        5.712972    0.710131    0.000014
     40          1           0        5.658790    1.354414   -0.887727
     41          1           0        5.658796    1.354084    0.887995
     42          6           0        4.551371   -0.258429   -0.000165
     43          1           0        4.603723   -0.901755    0.887672
     44          1           0        4.603700   -0.901402   -0.888258
     45          8           0        3.361392    0.496840    0.000000
     46          6           0        2.197098   -0.295494   -0.000096
     47          1           0        2.164237   -0.940213    0.887820
     48          1           0        2.164217   -0.939969   -0.888189
     49          6           0        1.007015    0.637710    0.000043
     50          1           0        1.039706    1.282224   -0.887952
     51          1           0        1.039734    1.281996    0.888203
     52          8           0       -0.158298   -0.154134   -0.000040
     53          6           0       -1.347161    0.601237    0.000071
     54          1           0       -1.400174    1.244461   -0.887916
     55          1           0       -1.400151    1.244235    0.888222
     56          6           0       -2.507184   -0.369050   -0.000039
     57          1           0       -2.454217   -1.012193    0.887955
     58          1           0       -2.454229   -1.011974   -0.888193
     59          8           0       -3.696486    0.386123    0.000062
     60          6           0       -4.861333   -0.405997   -0.000023
     61          1           0       -4.894185   -1.050502    0.887976
     62          1           0       -4.894190   -1.050306   -0.888163
     63          6           0       -6.051051    0.527632    0.000083
     64          1           0       -6.018195    1.172109   -0.887933
     65          1           0       -6.018187    1.171918    0.888237
     66          8           0       -7.216051   -0.264368    0.000003
     67          6           0       -8.405201    0.490814    0.000082
     68          1           0       -8.458225    1.133951   -0.887937
     69          1           0       -8.458221    1.133772    0.888231
     70          6           0       -9.565080   -0.479634   -0.000014
     71          1           0       -9.512064   -1.122759    0.887999
     72          1           0       -9.512060   -1.122587   -0.888151
     73          8           0      -10.754244    0.275576    0.000057
     74          6           0      -11.919234   -0.516490   -0.000016
     75          1           0      -11.952094   -1.160943    0.888002
     76          1           0      -11.952088   -1.160789   -0.888145
     77          6           0      -13.108929    0.417161    0.000061
     78          1           0      -13.076005    1.061647   -0.887969
     79          1           0      -13.076008    1.061497    0.888201
     80          8           0      -14.273786   -0.374822   -0.000007
     81          6           0      -15.462976    0.380368    0.000050
     82          1           0      -15.515764    1.023510   -0.888004
     83          1           0      -15.515768    1.023367    0.888207
     84          6           0      -16.623277   -0.589531   -0.000030
     85          1           0      -16.570590   -1.232726    0.887936
     86          1           0      -16.570582   -1.232586   -0.888098
     87          8           0      -17.811701    0.166539    0.000024
     88          6           0      -18.977592   -0.624425   -0.000040
     89          1           0      -19.011782   -1.268902    0.887984
     90          1           0      -19.011774   -1.268770   -0.888159
     91          6           0      -20.168337    0.307293    0.000025
     92          1           0      -20.127884    0.946483   -0.888656
     93          1           0      -20.127891    0.946352    0.888800
     94          8           0      -21.329194   -0.508832   -0.000040
     95          1           0      -22.109726    0.048648   -0.000000
 ---------------------------------------------------------------------

 SCF Done:  E(RCAM-B3LYP) =  -1778.47309517     A.U. after    1 cycles

 The electronic state is 1-A.
 Alpha  occ. eigenvalues --  -19.20533 -19.20533 -19.20515 -19.20513 -19.20461
 Alpha  occ. eigenvalues --  -19.20447 -19.20316 -19.20271 -19.19796 -10.29340
 Alpha  occ. eigenvalues --  -10.29330 -10.29323 -10.29322 -10.29306 -10.29299
 Alpha  occ. eigenvalues --  -10.29296 -10.29294 -10.29290 -10.29263 -10.29248
 Alpha  occ. eigenvalues --  -10.29220 -10.29160 -10.29140 -10.29016 -10.28866
 Alpha  occ. eigenvalues --  -10.28818 -10.23819 -10.23557 -10.23481 -10.23350
 Alpha  occ. eigenvalues --  -10.23348 -10.23262 -10.23217 -10.23184 -10.23161
 Alpha  occ. eigenvalues --  -10.23132 -10.22693  -1.14102  -1.13903  -1.13637
 Alpha  occ. eigenvalues --   -1.13323  -1.12988  -1.12663  -1.12403  -1.12126
 Alpha  occ. eigenvalues --   -1.11312  -0.90361  -0.89293  -0.88516  -0.87857
 Alpha  occ. eigenvalues --   -0.87318  -0.86395  -0.85206  -0.84202  -0.82849
 Alpha  occ. eigenvalues --   -0.81353  -0.80064  -0.78444  -0.76824  -0.75777
 Alpha  occ. eigenvalues --   -0.72576  -0.70620  -0.69538  -0.69508  -0.69276
 Alpha  occ. eigenvalues --   -0.68972  -0.68791  -0.68645  -0.68464  -0.68287
 Alpha  occ. eigenvalues --   -0.66220  -0.65737  -0.65047  -0.64771  -0.60950
 Alpha  occ. eigenvalues --   -0.60005  -0.59443  -0.59150  -0.59094  -0.58595
 Alpha  occ. eigenvalues --   -0.57959  -0.57763  -0.57212  -0.56479  -0.56128
 Alpha  occ. eigenvalues --   -0.56009  -0.55464  -0.55333  -0.54638  -0.54614
 Alpha  occ. eigenvalues --   -0.54212  -0.53786  -0.53164  -0.52984  -0.52738
 Alpha  occ. eigenvalues --   -0.51798  -0.51730  -0.51373  -0.50923  -0.50547
 Alpha  occ. eigenvalues --   -0.50430  -0.49580  -0.49520  -0.49324  -0.48620
 Alpha  occ. eigenvalues --   -0.47993  -0.47423  -0.47033  -0.46357  -0.46252
 Alpha  occ. eigenvalues --   -0.45404  -0.44974  -0.44327  -0.44176  -0.43653
 Alpha  occ. eigenvalues --   -0.43371  -0.42665  -0.42541  -0.42017  -0.41871
 Alpha  occ. eigenvalues --   -0.41525  -0.41157  -0.40626  -0.40419  -0.40172
 Alpha  occ. eigenvalues --   -0.39864  -0.39510  -0.39324  -0.39320  -0.39267
 Alpha  occ. eigenvalues --   -0.39264  -0.39247  -0.39113  -0.39067  -0.38661
 Alpha  occ. eigenvalues --   -0.38615  -0.38599  -0.38282  -0.38185  -0.35750
 Alpha  occ. eigenvalues --   -0.35210  -0.33962  -0.33799  -0.33594  -0.33364
 Alpha  occ. eigenvalues --   -0.33134  -0.32928  -0.32789  -0.32533
 Alpha virt. eigenvalues --    0.02810   0.03608   0.03720   0.03900   0.04064
 Alpha virt. eigenvalues --    0.04211   0.04361   0.04555   0.04671   0.04852
 Alpha virt. eigenvalues --    0.04896   0.04982   0.05093   0.05321   0.05385

 Mulliken charges:
               1
     1  C   -0.336673
     2  H    0.133359
     3  H    0.133371
     4  C   -0.337514
     5  H    0.150913
     6  H    0.150918
     7  C   -0.155623
     8  H    0.142511
     9  H    0.142511
    10  C   -0.266334
    11  H    0.145655
    12  H    0.145655
    13  C   -0.418048
    14  H    0.143694
    15  H    0.143694
    16  C   -0.318022
    17  H    0.143666
    18  H    0.143665
    19  C   -0.240915
    20  H    0.142777
    21  H    0.142777
    22  C   -0.160038
    23  H    0.143278
    24  H    0.143278
    25  C   -0.169774
    26  H    0.141667
    27  H    0.141667
    28  C   -0.346383
    29  H    0.139551
    30  H    0.139551
    31  C   -0.242190
    32  H    0.136287
    33  H    0.136287
    34  C   -0.598600
    35  H    0.132723
    36  H    0.138972
    37  H    0.132723
    38  O   -0.172265
    39  C   -0.045290
    40  H    0.135547
    41  H    0.135564
    42  C   -0.195164
    43  H    0.139897
    44  H    0.139902
    45  O   -0.184502
    46  C   -0.164495
    47  H    0.139434
    48  H    0.139427
    49  C   -0.217884
    50  H    0.139995
    51  H    0.139995
    52  O   -0.187645
    53  C   -0.154396
    54  H    0.139514
    55  H    0.139515
    56  C   -0.199979
    57  H    0.140192
    58  H    0.140193
    59  O   -0.188415
    60  C   -0.173746
    61  H    0.139997
    62  H    0.139996
    63  C   -0.201698
    64  H    0.140203
    65  H    0.140204
    66  O   -0.189765
    67  C   -0.168946
    68  H    0.139864
    69  H    0.139864
    70  C   -0.202142
    71  H    0.140343
    72  H    0.140343
    73  O   -0.191479
    74  C   -0.165200
    75  H    0.139938
    76  H    0.139937
    77  C   -0.208033
    78  H    0.140432
    79  H    0.140432
    80  O   -0.193175
    81  C   -0.148635
    82  H    0.139508
    83  H    0.139508
    84  C   -0.242958
    85  H    0.141652
    86  H    0.141652
    87  O   -0.197806
    88  C   -0.199025
    89  H    0.140625
    90  H    0.140625
    91  C   -0.145717
    92  H    0.140747
    93  H    0.140747
    94  O   -0.327136
    95  H    0.248665
 Sum of Mulliken charges =  -0.00000

 Dipole moment (field-independent basis, Debye):
    X=              0.3078    Y=              1.6835    Z=              0.0001  Tot=              1.7114
 Quadrupole moment (field-independent basis, Debye-Ang):
   XX=           -207.1688   YY=           -241.2317   ZZ=           -232.5857
   XY=            -18.8847   XZ=             -0.0017   YZ=             -0.0003

 ESP charges:
               1
     1  C    0.394910
     2  H   -0.047199
     3  H   -0.047150
     4  C    0.075782
     5  H   -0.006184
     6  H   -0.006191
     7  C   -0.083585
     8  H   -0.008343
     9  H   -0.008344
    10  C    0.148393
    11  H   -0.039988
    12  H   -0.039982
    13  C    0.037081
    14  H   -0.015472
    15  H   -0.015460
    16  C   -0.025997
    17  H   -0.009917
    18  H   -0.009919
    19  C    0.091934
    20  H   -0.031946
    21  H   -0.031947
    22  C    0.094269
    23  H   -0.029842
    24  H   -0.029830
    25  C   -0.060962
    26  H   -0.001837
    27  H   -0.001809
    28  C    0.040957
    29  H   -0.017079
    30  H   -0.017084
    31  C    0.208174
    32  H   -0.047738
    33  H   -0.047778
    34  C   -0.210200
    35  H    0.037933
    36  H    0.044587
    37  H    0.037920
    38  O   -0.643989
    39  C    0.388039
    40  H   -0.029181
    41  H   -0.029133
    42  C    0.412068
    43  H   -0.035135
    44  H   -0.035093
    45  O   -0.699013
    46  C    0.420857
    47  H   -0.032101
    48  H   -0.032105
    49  C    0.410619
    50  H   -0.031912
    51  H   -0.031915
    52  O   -0.710026
    53  C    0.438830
    54  H   -0.038542
    55  H   -0.038524
    56  C    0.423696
    57  H   -0.035912
    58  H   -0.035900
    59  O   -0.714543
    60  C    0.436002
    61  H   -0.037345
    62  H   -0.037332
    63  C    0.429233
    64  H   -0.036808
    65  H   -0.036798
    66  O   -0.720460
    67  C    0.447636
    68  H   -0.040684
    69  H   -0.040680
    70  C    0.424602
    71  H   -0.035933
    72  H   -0.035926
    73  O   -0.716838
    74  C    0.449964
    75  H   -0.041907
    76  H   -0.041904
    77  C    0.419284
    78  H   -0.037231
    79  H   -0.037227
    80  O   -0.713156
    81  C    0.477124
    82  H   -0.046607
    83  H   -0.046606
    84  C    0.380624
    85  H   -0.031963
    86  H   -0.031948
    87  O   -0.714114
    88  C    0.512870
    89  H   -0.043101
    90  H   -0.043104
    91  C    0.319349
    92  H   -0.020490
    93  H   -0.020477
    94  O   -0.778600
    95  H    0.449316
 Sum of ESP charges =  -0.00000

 Normal termination of Gaussian 16 at Wed Sep 30 05:51:38 2020.
