 Gaussian 16, Revision A.03,

 ----------------------------------
 #P CAM-B3LYP/6-311+G** Opt SCF=XQC
 ----------------------------------

 -------------------------------
 C17H35COO geometry optimization
 -------------------------------
 Symbolic Z-matrix:
 Charge = -1 Multiplicity = 1

 SCF Done:  E(RCAM-B3LYP) =  -857.242478753     A.U. after   15 cycles
 SCF Done:  E(RCAM-B3LYP) =  -857.282510870     A.U. after   14 cycles
 SCF Done:  E(RCAM-B3LYP) =  -857.293471724     A.U. after   15 cycles
 SCF Done:  E(RCAM-B3LYP) =  -857.291957740     A.U. after   15 cycles
 SCF Done:  E(RCAM-B3LYP) =  -857.276642978     A.U. after   15 cycles
 SCF Done:  E(RCAM-B3LYP) =  -857.273291110     A.U. after   14 cycles
 SCF Done:  E(RCAM-B3LYP) =  -857.295464918     A.U. after   12 cycles
 SCF Done:  E(RCAM-B3LYP) =  -857.299126565     A.U. after   13 cycles
 SCF Done:  E(RCAM-B3LYP) =  -857.299678786     A.U. after   14 cycles
 SCF Done:  E(RCAM-B3LYP) =  -857.299899706     A.U. after   13 cycles
 SCF Done:  E(RCAM-B3LYP) =  -857.300065245     A.U. after   14 cycles
 SCF Done:  E(RCAM-B3LYP) =  -857.300144089     A.U. after   13 cycles
 SCF Done:  E(RCAM-B3LYP) =  -857.300167370     A.U. after   13 cycles
 SCF Done:  E(RCAM-B3LYP) =  -857.300171595     A.U. after   12 cycles
 SCF Done:  E(RCAM-B3LYP) =  -857.300171767     A.U. after   12 cycles
 SCF Done:  E(RCAM-B3LYP) =  -857.300172147     A.U. after   10 cycles
 SCF Done:  E(RCAM-B3LYP) =  -857.300172173     A.U. after   10 cycles
 Optimization completed.
    -- Stationary point found.
 Normal termination of Gaussian 16 at Wed Sep 30 06:56:09 2020.
 Gaussian 16:  ES64L-G16RevA.03 25-Dec-2016

 -------------------------------------------------------
 #P CAM-B3LYP/6-311+G** Guess=Read Geom=Check Pop=CHelpG
 -------------------------------------------------------

 -----------------------------
 C17H35COO charge distribution
 -----------------------------
 Structure from the checkpoint file:  "C17H35COO.chk"
 Charge = -1 Multiplicity = 1

                         Standard orientation:
 ---------------------------------------------------------------------
 Center     Atomic      Atomic             Coordinates (Angstroms)
 Number     Number       Type             X           Y           Z
 ---------------------------------------------------------------------
      1          6           0       -9.966865    0.197554   -0.042640
      2          8           0      -10.985606   -0.449947    0.281285
      3          8           0       -9.880230    1.392495   -0.400991
      4          6           0       -8.637448   -0.615094   -0.029180
      5          1           0       -8.606621   -1.172127   -0.975214
      6          1           0       -8.704954   -1.365393    0.764718
      7          6           0       -7.373448    0.221689    0.109908
      8          1           0       -7.418503    1.030098   -0.624575
      9          1           0       -7.374047    0.714388    1.089751
     10          6           0       -6.082862   -0.577702   -0.052875
     11          1           0       -6.077973   -1.057335   -1.040402
     12          1           0       -6.061623   -1.396227    0.678759
     13          6           0       -4.817302    0.261796    0.101425
     14          1           0       -4.835069    1.075443   -0.633664
     15          1           0       -4.825320    0.745657    1.085904
     16          6           0       -3.524914   -0.534197   -0.056706
     17          1           0       -3.510060   -1.348183    0.678662
     18          1           0       -3.517012   -1.017218   -1.041651
     19          6           0       -2.261637    0.307361    0.099892
     20          1           0       -2.278168    1.122261   -0.633905
     21          1           0       -2.268791    0.788584    1.085438
     22          6           0       -0.970216   -0.489131   -0.061798
     23          1           0       -0.954663   -1.304611    0.671504
     24          1           0       -0.963461   -0.969278   -1.047863
     25          6           0        0.292239    0.353159    0.096008
     26          1           0        0.275591    1.169265   -0.636349
     27          1           0        0.285624    0.832192    1.082510
     28          6           0        1.583146   -0.443566   -0.067777
     29          1           0        1.598668   -1.260555    0.663672
     30          1           0        1.589946   -0.921250   -1.054921
     31          6           0        2.845198    0.398809    0.092196
     32          1           0        2.828998    1.216152   -0.638734
     33          1           0        2.838301    0.875877    1.079585
     34          6           0        4.135859   -0.398026   -0.072595
     35          1           0        4.151588   -1.215518    0.658204
     36          1           0        4.142546   -0.874806   -1.060122
     37          6           0        5.397680    0.444552    0.087854
     38          1           0        5.381839    1.261806   -0.643144
     39          1           0        5.390509    0.921577    1.075232
     40          6           0        6.688205   -0.352562   -0.076448
     41          1           0        6.703815   -1.169750    0.654629
     42          1           0        6.695109   -0.829624   -1.063800
     43          6           0        7.949943    0.490167    0.083948
     44          1           0        7.934131    1.307337   -0.647147
     45          1           0        7.942846    0.967216    1.071315
     46          6           0        9.240382   -0.306741   -0.080314
     47          1           0        9.257127   -1.124149    0.650711
     48          1           0        9.248469   -0.783953   -1.067745
     49          6           0       10.502810    0.535251    0.080009
     50          1           0       10.486200    1.351293   -0.650762
     51          1           0       10.494747    1.011504    1.066591
     52          6           0       11.786358   -0.271495   -0.085989
     53          1           0       12.673227    0.355075    0.033452
     54          1           0       11.844809   -1.074601    0.653803
     55          1           0       11.836102   -0.732466   -1.076298
 ---------------------------------------------------------------------

 SCF Done:  E(RCAM-B3LYP) =  -857.300172173     A.U. after    1 cycles

 The electronic state is 1-A.
 Alpha  occ. eigenvalues --  -18.93971 -18.93734 -10.20549 -10.20161 -10.20057
 Alpha  occ. eigenvalues --  -10.19963 -10.19728 -10.19443 -10.19122 -10.18732
 Alpha  occ. eigenvalues --  -10.18283 -10.17718 -10.17057 -10.16189 -10.15161
 Alpha  occ. eigenvalues --  -10.13900 -10.13710 -10.12095 -10.09283 -10.07299
 Alpha  occ. eigenvalues --   -0.91438  -0.86514  -0.84803  -0.82946  -0.82497
 Alpha  occ. eigenvalues --   -0.80908  -0.78688  -0.76287  -0.73705  -0.70945
 Alpha  occ. eigenvalues --   -0.68046  -0.65146  -0.62690  -0.62079  -0.61152
 Alpha  occ. eigenvalues --   -0.60200  -0.58764  -0.56456  -0.52825  -0.52598
 Alpha  occ. eigenvalues --   -0.50941  -0.49177  -0.47308  -0.47289  -0.45828
 Alpha  occ. eigenvalues --   -0.45301  -0.44166  -0.43256  -0.42949  -0.41219
 Alpha  occ. eigenvalues --   -0.41183  -0.40520  -0.39262  -0.39200  -0.38162
 Alpha  occ. eigenvalues --   -0.37514  -0.37481  -0.36190  -0.36060  -0.35520
 Alpha  occ. eigenvalues --   -0.35232  -0.34919  -0.34690  -0.34285  -0.33965
 Alpha  occ. eigenvalues --   -0.33189  -0.32990  -0.32420  -0.31573  -0.31160
 Alpha  occ. eigenvalues --   -0.30507  -0.29513  -0.28469  -0.26897  -0.26682
 Alpha  occ. eigenvalues --   -0.24886  -0.23325  -0.12152  -0.11071  -0.10636
 Alpha virt. eigenvalues --    0.06526   0.07555   0.07923   0.08512   0.09044
 Alpha virt. eigenvalues --    0.09248   0.10088   0.10566   0.10811   0.11563
 Alpha virt. eigenvalues --    0.11738   0.12076   0.12147   0.12551   0.13179

 Mulliken charges:
               1
     1  C    0.056504
     2  O   -0.488826
     3  O   -0.485444
     4  C   -0.542915
     5  H    0.117090
     6  H    0.131424
     7  C   -0.467830
     8  H    0.170170
     9  H    0.126401
    10  C   -0.260372
    11  H    0.128327
    12  H    0.128087
    13  C   -0.097309
    14  H    0.141007
    15  H    0.136666
    16  C   -0.037688
    17  H    0.136326
    18  H    0.136879
    19  C   -0.172580
    20  H    0.140666
    21  H    0.140081
    22  C   -0.307571
    23  H    0.139967
    24  H    0.140309
    25  C   -0.400365
    26  H    0.141944
    27  H    0.141460
    28  C   -0.404017
    29  H    0.141489
    30  H    0.141613
    31  C   -0.308439
    32  H    0.142411
    33  H    0.142218
    34  C   -0.170868
    35  H    0.142046
    36  H    0.142132
    37  C   -0.063828
    38  H    0.142345
    39  H    0.142226
    40  C   -0.110450
    41  H    0.142197
    42  H    0.142280
    43  C   -0.275497
    44  H    0.141398
    45  H    0.141352
    46  C   -0.446393
    47  H    0.139395
    48  H    0.139446
    49  C   -0.264463
    50  H    0.136000
    51  H    0.135950
    52  C   -0.603770
    53  H    0.136527
    54  H    0.132129
    55  H    0.132160
 Sum of Mulliken charges =  -1.00000

 Dipole moment (field-independent basis, Debye):
    X=             48.1668    Y=             -2.1716    Z=              0.2043  Tot=             48.2161
 Quadrupole moment (field-independent basis, Debye-Ang):
   XX=           -659.9390   YY=           -145.9642   ZZ=           -133.4500
   XY=             22.1799   XZ=             -0.8190   YZ=              1.7894

 ESP charges:
               1
     1  C    0.989459
     2  O   -0.888666
     3  O   -0.874775
     4  C   -0.193302
     5  H   -0.009296
     6  H   -0.011823
     7  C    0.190008
     8  H   -0.032045
     9  H   -0.062885
    10  C    0.016932
    11  H   -0.029813
    12  H   -0.033494
    13  C    0.026618
    14  H   -0.030148
    15  H   -0.028092
    16  C    0.096187
    17  H   -0.043249
    18  H   -0.042556
    19  C    0.053464
    20  H   -0.029082
    21  H   -0.032037
    22  C    0.045124
    23  H   -0.029320
    24  H   -0.029345
    25  C    0.069750
    26  H   -0.031477
    27  H   -0.031603
    28  C    0.032734
    29  H   -0.023243
    30  H   -0.024499
    31  C    0.072934
    32  H   -0.029527
    33  H   -0.031062
    34  C    0.031080
    35  H   -0.021986
    36  H   -0.022495
    37  C    0.031168
    38  H   -0.019796
    39  H   -0.020276
    40  C    0.110770
    41  H   -0.035672
    42  H   -0.036586
    43  C   -0.027960
    44  H   -0.012570
    45  H   -0.013256
    46  C    0.045193
    47  H   -0.021993
    48  H   -0.021811
    49  C    0.208262
    50  H   -0.049538
    51  H   -0.049907
    52  C   -0.201897
    53  H    0.038766
    54  H    0.034353
    55  H    0.034280
 Sum of ESP charges =  -1.00000

 Normal termination of Gaussian 16 at Wed Sep 30 06:56:56 2020.
