 Gaussian 16, Revision A.03,

 ----------------------------------
 #P CAM-B3LYP/6-311+G** Opt SCF=XQC
 ----------------------------------

 --------------------------
 CTAB geometry optimization
 --------------------------
 Symbolic Z-matrix:
 Charge =  1 Multiplicity = 1

 SCF Done:  E(RCAM-B3LYP) =  -803.552702450     A.U. after   12 cycles
 SCF Done:  E(RCAM-B3LYP) =  -803.579108063     A.U. after   11 cycles
 SCF Done:  E(RCAM-B3LYP) =  -803.585235704     A.U. after   11 cycles
 SCF Done:  E(RCAM-B3LYP) =  -803.586106825     A.U. after   10 cycles
 SCF Done:  E(RCAM-B3LYP) =  -803.586175277     A.U. after    9 cycles
 SCF Done:  E(RCAM-B3LYP) =  -803.586177708     A.U. after    8 cycles
 SCF Done:  E(RCAM-B3LYP) =  -803.586178096     A.U. after    7 cycles
 Optimization completed.
    -- Stationary point found.
 Normal termination of Gaussian 16 at Wed Sep 30 05:38:47 2020.
 Gaussian 16:  ES64L-G16RevA.03 25-Dec-2016

 -------------------------------------------------------
 #P CAM-B3LYP/6-311+G** Guess=Read Geom=Check Pop=CHelpG
 -------------------------------------------------------

 ------------------------
 CTAB charge distribution
 ------------------------
 Structure from the checkpoint file:  "CTAB.chk"
 Charge =  1 Multiplicity = 1

                         Standard orientation:
 ---------------------------------------------------------------------
 Center     Atomic      Atomic             Coordinates (Angstroms)
 Number     Number       Type             X           Y           Z
 ---------------------------------------------------------------------
      1          6           0       -9.636063   -0.980981   -0.000134
      2          1           0       -9.523115   -1.595106   -0.891096
      3          1           0       -9.522758   -1.595864    0.890261
      4          1           0      -10.614779   -0.505368    0.000264
      5          6           0       -8.745006    0.925693   -1.221133
      6          1           0       -9.755298    1.330166   -1.229536
      7          1           0       -8.025699    1.738986   -1.200434
      8          1           0       -8.586088    0.309178   -2.103793
      9          6           0       -8.744777    0.924894    1.221934
     10          1           0       -8.586046    0.307718    2.104165
     11          1           0       -8.025233    1.737992    1.201808
     12          1           0       -9.754949    1.329658    1.230610
     13          6           0       -7.221958   -0.614348   -0.000221
     14          1           0       -7.221759   -1.256482   -0.882390
     15          1           0       -7.221557   -1.256866    0.881669
     16          6           0       -6.003141    0.291042   -0.000168
     17          1           0       -5.996921    0.937257    0.881042
     18          1           0       -5.996870    0.937254   -0.881377
     19          6           0       -4.724209   -0.552437   -0.000127
     20          1           0       -4.718505   -1.208158   -0.877582
     21          1           0       -4.718514   -1.208081    0.877386
     22          6           0       -3.459906    0.302773   -0.000161
     23          1           0       -3.465645    0.959986    0.876845
     24          1           0       -3.465629    0.959891   -0.877237
     25          6           0       -2.179491   -0.527272   -0.000103
     26          1           0       -2.173565   -1.185447   -0.876573
     27          1           0       -2.173586   -1.185358    0.876434
     28          6           0       -0.912790    0.323462   -0.000131
     29          1           0       -0.918370    0.982140    0.876183
     30          1           0       -0.918351    0.982056   -0.876508
     31          6           0        0.369376   -0.503572   -0.000076
     32          1           0        0.375531   -1.162550   -0.876218
     33          1           0        0.375504   -1.162474    0.876124
     34          6           0        1.636813    0.345797   -0.000092
     35          1           0        1.631058    1.004982    0.875998
     36          1           0        1.631084    1.004910   -0.876237
     37          6           0        2.919752   -0.479944   -0.000039
     38          1           0        2.926028   -1.139246   -0.876063
     39          1           0        2.925997   -1.139181    0.876035
     40          6           0        4.187479    0.368951   -0.000048
     41          1           0        4.181558    1.028354    0.875952
     42          1           0        4.181589    1.028291   -0.876096
     43          6           0        5.470840   -0.456104    0.000005
     44          1           0        5.477189   -1.115559   -0.875964
     45          1           0        5.477156   -1.115497    0.876021
     46          6           0        6.738649    0.392657   -0.000001
     47          1           0        6.732596    1.052166    0.875944
     48          1           0        6.732629    1.052104   -0.875993
     49          6           0        8.022310   -0.431957    0.000052
     50          1           0        8.028750   -1.091490   -0.875907
     51          1           0        8.028716   -1.091430    0.876057
     52          6           0        9.290100    0.416513    0.000049
     53          1           0        9.285060    1.076311    0.875990
     54          1           0        9.285094    1.076252   -0.875936
     55          6           0       10.574691   -0.407037    0.000102
     56          1           0       10.580073   -1.065665   -0.875275
     57          1           0       10.580038   -1.065608    0.875521
     58          6           0       11.835229    0.451018    0.000099
     59          1           0       11.872825    1.096154    0.882007
     60          1           0       12.738124   -0.163205    0.000137
     61          1           0       11.872860    1.096096   -0.881849
     62          7           0       -8.577660    0.077977    0.000107
 ---------------------------------------------------------------------

 SCF Done:  E(RCAM-B3LYP) =  -803.586178096     A.U. after    1 cycles

 The electronic state is 1-A.
 Alpha  occ. eigenvalues --  -14.68106 -10.45687 -10.45591 -10.45583 -10.45582
 Alpha  occ. eigenvalues --  -10.39221 -10.36268 -10.33790 -10.31982 -10.30664
 Alpha  occ. eigenvalues --  -10.29627 -10.28826 -10.28178 -10.27659 -10.27230
 Alpha  occ. eigenvalues --  -10.26881 -10.26583 -10.26344 -10.26320 -10.25513
 Alpha  occ. eigenvalues --   -1.27113  -1.04119  -0.99686  -0.99652  -0.98389
 Alpha  occ. eigenvalues --   -0.95430  -0.93694  -0.92214  -0.90374  -0.88212
 Alpha  occ. eigenvalues --   -0.85998  -0.83950  -0.81577  -0.79083  -0.76834
 Alpha  occ. eigenvalues --   -0.76218  -0.75240  -0.74474  -0.73565  -0.71706
 Alpha  occ. eigenvalues --   -0.70447  -0.70185  -0.68963  -0.68223  -0.67372
 Alpha  occ. eigenvalues --   -0.66191  -0.63808  -0.63807  -0.63359  -0.63324
 Alpha  occ. eigenvalues --   -0.63169  -0.61504  -0.61351  -0.59752  -0.58695
 Alpha  occ. eigenvalues --   -0.58395  -0.56802  -0.56137  -0.55001  -0.54619
 Alpha  occ. eigenvalues --   -0.53654  -0.53073  -0.52040  -0.51890  -0.51099
 Alpha  occ. eigenvalues --   -0.50003  -0.49159  -0.48209  -0.47918  -0.47343
 Alpha  occ. eigenvalues --   -0.46218  -0.45710  -0.44639  -0.44293  -0.43810
 Alpha  occ. eigenvalues --   -0.43197  -0.43105  -0.42131  -0.42085  -0.41436
 Alpha  occ. eigenvalues --   -0.39714
 Alpha virt. eigenvalues --   -0.10806  -0.08283  -0.08000  -0.07650  -0.07051
 Alpha virt. eigenvalues --   -0.06068  -0.05773  -0.04845  -0.04764  -0.04596
 Alpha virt. eigenvalues --   -0.02521  -0.02291  -0.02085  -0.01525  -0.00478

 Mulliken charges:
               1
     1  C   -0.262133
     2  H    0.215172
     3  H    0.215155
     4  H    0.213832
     5  C   -0.253854
     6  H    0.212510
     7  H    0.213360
     8  H    0.220254
     9  C   -0.253831
    10  H    0.220245
    11  H    0.213349
    12  H    0.212508
    13  C   -0.463256
    14  H    0.222891
    15  H    0.222880
    16  C   -0.306107
    17  H    0.166828
    18  H    0.166865
    19  C   -0.155149
    20  H    0.164097
    21  H    0.164097
    22  C   -0.118530
    23  H    0.154263
    24  H    0.154265
    25  C   -0.276848
    26  H    0.151313
    27  H    0.151310
    28  C   -0.356437
    29  H    0.148120
    30  H    0.148121
    31  C   -0.408449
    32  H    0.147317
    33  H    0.147317
    34  C   -0.380960
    35  H    0.145930
    36  H    0.145931
    37  C   -0.292811
    38  H    0.145473
    39  H    0.145472
    40  C   -0.157152
    41  H    0.144673
    42  H    0.144674
    43  C   -0.074416
    44  H    0.144207
    45  H    0.144207
    46  C   -0.144029
    47  H    0.143917
    48  H    0.143918
    49  C   -0.301650
    50  H    0.142641
    51  H    0.142641
    52  C   -0.464094
    53  H    0.140543
    54  H    0.140543
    55  C   -0.265912
    56  H    0.136883
    57  H    0.136883
    58  C   -0.594966
    59  H    0.133278
    60  H    0.142099
    61  H    0.133278
    62  N   -0.412679
 Sum of Mulliken charges =   1.00000

 Dipole moment (field-independent basis, Debye):
    X=            -38.1454    Y=              0.3222    Z=              0.0004  Tot=             38.1468
 Quadrupole moment (field-independent basis, Debye-Ang):
   XX=            207.2408   YY=           -129.0056   ZZ=           -125.1429
   XY=             -3.9840   XZ=             -0.0041   YZ=              0.0001

 ESP charges:
               1
     1  C   -0.339291
     2  H    0.165665
     3  H    0.165806
     4  H    0.172875
     5  C   -0.248059
     6  H    0.140802
     7  H    0.142049
     8  H    0.157710
     9  C   -0.250022
    10  H    0.158147
    11  H    0.142563
    12  H    0.141449
    13  C   -0.244302
    14  H    0.131620
    15  H    0.131589
    16  C    0.104754
    17  H    0.014282
    18  H    0.014278
    19  C   -0.017839
    20  H    0.021278
    21  H    0.021268
    22  C   -0.031334
    23  H    0.008728
    24  H    0.008689
    25  C    0.051503
    26  H   -0.010820
    27  H   -0.010813
    28  C    0.057871
    29  H   -0.019632
    30  H   -0.019611
    31  C    0.037893
    32  H   -0.019103
    33  H   -0.019111
    34  C    0.033464
    35  H   -0.015573
    36  H   -0.015568
    37  C    0.048300
    38  H   -0.018390
    39  H   -0.018398
    40  C    0.020355
    41  H   -0.016681
    42  H   -0.016664
    43  C    0.057005
    44  H   -0.021971
    45  H   -0.021944
    46  C    0.076746
    47  H   -0.025159
    48  H   -0.025183
    49  C   -0.037851
    50  H   -0.005164
    51  H   -0.005257
    52  C    0.029365
    53  H   -0.013248
    54  H   -0.013216
    55  C    0.203274
    56  H   -0.043707
    57  H   -0.043535
    58  C   -0.235759
    59  H    0.046256
    60  H    0.055912
    61  H    0.046316
    62  N    0.215396
 Sum of ESP charges =   1.00000

 Normal termination of Gaussian 16 at Wed Sep 30 05:39:18 2020.
