 Gaussian 16, Revision A.03,

 ----------------------------------
 #P CAM-B3LYP/6-311+G** Opt SCF=XQC
 ----------------------------------

 --------------------------
 NEt4 geometry optimization
 --------------------------
 Symbolic Z-matrix:
 Charge =  1 Multiplicity = 1

 SCF Done:  E(RCAM-B3LYP) =  -371.255143004     A.U. after   11 cycles
 SCF Done:  E(RCAM-B3LYP) =  -371.276366486     A.U. after   11 cycles
 SCF Done:  E(RCAM-B3LYP) =  -371.285158339     A.U. after   10 cycles
 SCF Done:  E(RCAM-B3LYP) =  -371.288018279     A.U. after   10 cycles
 SCF Done:  E(RCAM-B3LYP) =  -371.288713507     A.U. after   10 cycles
 SCF Done:  E(RCAM-B3LYP) =  -371.289775369     A.U. after   10 cycles
 SCF Done:  E(RCAM-B3LYP) =  -371.290334609     A.U. after   10 cycles
 SCF Done:  E(RCAM-B3LYP) =  -371.290452243     A.U. after   10 cycles
 SCF Done:  E(RCAM-B3LYP) =  -371.290602321     A.U. after    9 cycles
 SCF Done:  E(RCAM-B3LYP) =  -371.290634951     A.U. after    9 cycles
 SCF Done:  E(RCAM-B3LYP) =  -371.290646858     A.U. after    8 cycles
 SCF Done:  E(RCAM-B3LYP) =  -371.290650073     A.U. after    8 cycles
 SCF Done:  E(RCAM-B3LYP) =  -371.290650602     A.U. after    8 cycles
 SCF Done:  E(RCAM-B3LYP) =  -371.290650655     A.U. after    6 cycles
 Optimization completed.
    -- Stationary point found.
 Normal termination of Gaussian 16 at Thu Oct  1 18:20:39 2020.
 Gaussian 16:  ES64L-G16RevA.03 25-Dec-2016

 -------------------------------------------------------
 #P CAM-B3LYP/6-311+G** Guess=Read Geom=Check Pop=CHelpG
 -------------------------------------------------------

 ------------------------
 NEt4 charge distribution
 ------------------------
 Structure from the checkpoint file:  "NEt4.chk"
 Charge =  1 Multiplicity = 1

                         Standard orientation:
 ---------------------------------------------------------------------
 Center     Atomic      Atomic             Coordinates (Angstroms)
 Number     Number       Type             X           Y           Z
 ---------------------------------------------------------------------
      1          6           0        1.609576    0.507671   -0.197489
      2          1           0        1.863869    0.541219   -1.257711
      3          1           0        1.572892    1.529903    0.169722
      4          6           0        2.649352   -0.279065    0.579441
      5          1           0        2.827267   -1.275724    0.178949
      6          1           0        3.590617    0.267070    0.499677
      7          1           0        2.416883   -0.356639    1.641419
      8          6           0        0.183091   -1.429565   -0.680484
      9          1           0        0.853696   -1.996753   -0.040042
     10          1           0        0.648864   -1.351079   -1.663617
     11          6           0       -1.147268   -2.150630   -0.785736
     12          1           0       -1.885982   -1.620845   -1.385677
     13          1           0       -0.952480   -3.099863   -1.287850
     14          1           0       -1.574807   -2.389725    0.185935
     15          6           0       -0.681573    0.859778   -1.026119
     16          1           0       -0.349670    0.653804   -2.044442
     17          1           0       -1.697616    0.489462   -0.931043
     18          6           0       -0.631974    2.351060   -0.742730
     19          1           0        0.311066    2.808691   -1.037107
     20          1           0       -1.415578    2.825396   -1.335366
     21          1           0       -0.828361    2.593330    0.302018
     22          6           0       -0.283969    0.027898    1.324033
     23          1           0        0.132199   -0.863398    1.790387
     24          1           0        0.208540    0.889413    1.772883
     25          6           0       -1.779302    0.115013    1.579199
     26          1           0       -1.920113    0.065141    2.660366
     27          1           0       -2.209885    1.057921    1.245738
     28          1           0       -2.347414   -0.702140    1.142571
     29          7           0        0.178345   -0.011165   -0.129641
 ---------------------------------------------------------------------

 SCF Done:  E(RCAM-B3LYP) =  -371.290650655     A.U. after    1 cycles

 The electronic state is 1-A.
 Alpha  occ. eigenvalues --  -14.66290 -10.45285 -10.45208 -10.45199 -10.45097
 Alpha  occ. eigenvalues --  -10.39034 -10.38983 -10.38964 -10.38916  -1.25042
 Alpha  occ. eigenvalues --   -1.02732  -1.02531  -1.02207  -0.97012  -0.89597
 Alpha  occ. eigenvalues --   -0.88307  -0.87904  -0.80841  -0.74903  -0.74260
 Alpha  occ. eigenvalues --   -0.73143  -0.69925  -0.69093  -0.65983  -0.65444
 Alpha  occ. eigenvalues --   -0.62652  -0.61671  -0.61389  -0.61183  -0.60900
 Alpha  occ. eigenvalues --   -0.60223  -0.60094  -0.58443  -0.57191  -0.56950
 Alpha  occ. eigenvalues --   -0.56754  -0.56168
 Alpha virt. eigenvalues --   -0.09937  -0.08462  -0.08309  -0.08282  -0.06014
 Alpha virt. eigenvalues --   -0.05658  -0.05090  -0.04916  -0.04754  -0.03540
 Alpha virt. eigenvalues --   -0.02771  -0.01971  -0.01725  -0.01686  -0.01372

 Mulliken charges:
               1
     1  C   -0.125640
     2  H    0.222590
     3  H    0.212108
     4  C   -0.515643
     5  H    0.173076
     6  H    0.195175
     7  H    0.176362
     8  C   -0.137648
     9  H    0.204514
    10  H    0.219883
    11  C   -0.507901
    12  H    0.173630
    13  H    0.194641
    14  H    0.167934
    15  C   -0.169688
    16  H    0.223480
    17  H    0.207572
    18  C   -0.521925
    19  H    0.177312
    20  H    0.198275
    21  H    0.177585
    22  C   -0.194225
    23  H    0.219732
    24  H    0.224700
    25  C   -0.496770
    26  H    0.194038
    27  H    0.169403
    28  H    0.169190
    29  N   -0.231760
 Sum of Mulliken charges =   1.00000

 Dipole moment (field-independent basis, Debye):
    X=              0.4951    Y=             -0.0303    Z=             -0.3050  Tot=              0.5823
 Quadrupole moment (field-independent basis, Debye-Ang):
   XX=            -47.3417   YY=            -48.0200   ZZ=            -50.3210
   XY=             -0.0146   XZ=             -0.1383   YZ=              0.0549

 ESP charges:
               1
     1  C   -0.066532
     2  H    0.102401
     3  H    0.109885
     4  C   -0.250632
     5  H    0.086485
     6  H    0.131988
     7  H    0.080380
     8  C   -0.044840
     9  H    0.113222
    10  H    0.097358
    11  C   -0.279554
    12  H    0.093036
    13  H    0.131765
    14  H    0.104648
    15  C    0.042866
    16  H    0.074842
    17  H    0.080504
    18  C   -0.268027
    19  H    0.084784
    20  H    0.125535
    21  H    0.095470
    22  C    0.110937
    23  H    0.067295
    24  H    0.062722
    25  C   -0.300983
    26  H    0.123170
    27  H    0.098743
    28  H    0.104860
    29  N    0.087670
 Sum of ESP charges =   1.00000

 Normal termination of Gaussian 16 at Thu Oct  1 18:20:51 2020.
