 Gaussian 16, Revision A.03,

 ----------------------------------
 #P CAM-B3LYP/6-311+G** Opt SCF=XQC
 ----------------------------------

 -------------------------
 PDB geometry optimization
 -------------------------
 Symbolic Z-matrix:
 Charge =  0 Multiplicity = 1

 SCF Done:  E(RCAM-B3LYP) =  -1151.41715197     A.U. after   14 cycles
 SCF Done:  E(RCAM-B3LYP) =  -1151.41883386     A.U. after   12 cycles
 SCF Done:  E(RCAM-B3LYP) =  -1151.41885136     A.U. after   10 cycles
 Optimization completed.
    -- Stationary point found.
 Normal termination of Gaussian 16 at Wed Sep 30 05:12:39 2020.

 -------------------------------------------------------
 #P CAM-B3LYP/6-311+G** Guess=Read Geom=Check Pop=CHelpG
 -------------------------------------------------------

 -----------------------
 PDB charge distribution
 -----------------------
 Structure from the checkpoint file:  "PDB.chk"
 Charge =  0 Multiplicity = 1

 SCF Done:  E(RCAM-B3LYP) =  -1151.41885136     A.U. after    2 cycles
 Normal termination of Gaussian 16 at Wed Sep 30 05:13:03 2020.

 ----------------------------------
 #P CAM-B3LYP/6-311+G** Opt SCF=XQC
 ----------------------------------

 -------------------------
 PCB geometry optimization
 -------------------------
 Symbolic Z-matrix:
 Charge =  0 Multiplicity = 1

 SCF Done:  E(RCAM-B3LYP) =  -2761.25077320     A.U. after   16 cycles
 SCF Done:  E(RCAM-B3LYP) =  -2761.25769468     A.U. after   14 cycles
 SCF Done:  E(RCAM-B3LYP) =  -2761.25801381     A.U. after   12 cycles
 SCF Done:  E(RCAM-B3LYP) =  -2761.25803352     A.U. after   11 cycles
 SCF Done:  E(RCAM-B3LYP) =  -2761.25803545     A.U. after   10 cycles
 SCF Done:  E(RCAM-B3LYP) =  -2761.25803629     A.U. after   11 cycles
 SCF Done:  E(RCAM-B3LYP) =  -2761.25911485     A.U. after   17 cycles
 SCF Done:  E(RCAM-B3LYP) =  -2761.22968957     A.U. after   19 cycles
 SCF Done:  E(RCAM-B3LYP) =  -2761.26024586     A.U. after   16 cycles
 SCF Done:  E(RCAM-B3LYP) =  -2761.26098160     A.U. after   14 cycles
 SCF Done:  E(RCAM-B3LYP) =  -2761.26131253     A.U. after   15 cycles
 SCF Done:  E(RCAM-B3LYP) =  -2761.26141526     A.U. after   14 cycles
 SCF Done:  E(RCAM-B3LYP) =  -2761.26144980     A.U. after   14 cycles
 SCF Done:  E(RCAM-B3LYP) =  -2761.26146224     A.U. after   12 cycles
 SCF Done:  E(RCAM-B3LYP) =  -2761.26146644     A.U. after   11 cycles
 Optimization completed.
    -- Stationary point found.
 Normal termination of Gaussian 16 at Wed Sep 30 05:53:31 2020.
 Gaussian 16:  ES64L-G16RevA.03 25-Dec-2016

 -------------------------------------------------------
 #P CAM-B3LYP/6-311+G** Guess=Read Geom=Check Pop=CHelpG
 -------------------------------------------------------

 -----------------------
 PCB charge distribution
 -----------------------
 Structure from the checkpoint file:  "PCB.chk"
 Charge =  0 Multiplicity = 1

                         Standard orientation:
 ---------------------------------------------------------------------
 Center     Atomic      Atomic             Coordinates (Angstroms)
 Number     Number       Type             X           Y           Z
 ---------------------------------------------------------------------
      1          6           0       -3.346357    1.106300   -0.428642
      2          6           0       -1.962460    1.121660   -0.435523
      3          6           0       -1.259310    0.000200    0.000072
      4          6           0       -1.962309   -1.121367    0.435773
      5          6           0       -3.346224   -1.106282    0.428771
      6          6           0       -4.060732   -0.000080   -0.000030
      7          1           0       -1.438213    1.994223   -0.801029
      8          1           0       -1.437898   -1.993698    0.801544
      9          1           0       -5.141331   -0.000149   -0.000200
     10          6           0        0.224217    0.000189    0.000127
     11          6           0        0.932650   -1.118940   -0.423568
     12          6           0        0.932854    1.119210    0.423638
     13          6           0        2.316792   -1.118879   -0.422807
     14          1           0        0.412498   -1.996773   -0.781963
     15          6           0        2.316979    1.118844    0.422970
     16          1           0        0.412902    1.997360    0.781598
     17          6           0        3.034861   -0.000130    0.000202
     18         17           0       -4.217507    2.510316   -0.984903
     19         17           0       -4.217083   -2.510481    0.984951
     20         17           0        3.139422    2.543917    0.974696
     21         17           0        4.760181   -0.000208    0.000170
     22         17           0        3.138886   -2.543856   -0.975258
 ---------------------------------------------------------------------

 SCF Done:  E(RCAM-B3LYP) =  -2761.26146644     A.U. after    2 cycles

 The electronic state is 1-A.
 Alpha  occ. eigenvalues -- -101.64669-101.64584-101.64584-101.64240-101.64240
 Alpha  occ. eigenvalues --  -10.34924 -10.34758 -10.34748 -10.34034 -10.34033
 Alpha  occ. eigenvalues --  -10.30249 -10.30210 -10.28978 -10.28976 -10.28833
 Alpha  occ. eigenvalues --  -10.28544 -10.28543  -9.56377  -9.56290  -9.56289
 Alpha  occ. eigenvalues --   -9.55943  -9.55942  -7.32988  -7.32887  -7.32887
 Alpha  occ. eigenvalues --   -7.32522  -7.32522  -7.31947  -7.31871  -7.31858
 Alpha  occ. eigenvalues --   -7.31858  -7.31803  -7.31803  -7.31511  -7.31511
 Alpha  occ. eigenvalues --   -7.31480  -7.31480  -1.04137  -1.02069  -0.98690
 Alpha  occ. eigenvalues --   -0.97972  -0.97020  -0.94979  -0.92562  -0.87528
 Alpha  occ. eigenvalues --   -0.84940  -0.83721  -0.83287  -0.74639  -0.72249
 Alpha  occ. eigenvalues --   -0.69919  -0.68597  -0.63119  -0.61311  -0.60310
 Alpha  occ. eigenvalues --   -0.58061  -0.56755  -0.54373  -0.53350  -0.53349
 Alpha  occ. eigenvalues --   -0.53022  -0.52369  -0.50941  -0.49344  -0.47867
 Alpha  occ. eigenvalues --   -0.46407  -0.46026  -0.45496  -0.44985  -0.43747
 Alpha  occ. eigenvalues --   -0.41828  -0.41592  -0.40753  -0.40211  -0.39874
 Alpha  occ. eigenvalues --   -0.39558  -0.38182  -0.34952  -0.32944  -0.32627
 Alpha  occ. eigenvalues --   -0.31396
 Alpha virt. eigenvalues --   -0.03319  -0.01193  -0.00725   0.01302   0.01699
 Alpha virt. eigenvalues --    0.02072   0.03290   0.03519   0.03723   0.04583
 Alpha virt. eigenvalues --    0.05173   0.05261   0.05485   0.06368   0.06779

 Mulliken charges:
               1
     1  C    0.643235
     2  C   -0.882266
     3  C    0.140700
     4  C   -0.883065
     5  C    0.643052
     6  C   -1.025256
     7  H    0.164379
     8  H    0.164404
     9  H    0.184022
    10  C    0.822870
    11  C   -0.915792
    12  C   -0.914885
    13  C   -0.382690
    14  H    0.167542
    15  C   -0.382198
    16  H    0.167511
    17  C    0.119426
    18  Cl   0.345663
    19  Cl   0.345633
    20  Cl   0.459056
    21  Cl   0.559624
    22  Cl   0.459035
 Sum of Mulliken charges =  -0.00000

 Dipole moment (field-independent basis, Debye):
    X=             -1.0444    Y=              0.0003    Z=             -0.0001  Tot=              1.0444
 Quadrupole moment (field-independent basis, Debye-Ang):
   XX=           -141.3991   YY=           -133.5096   ZZ=           -135.2133
   XY=              0.0008   XZ=              0.0005   YZ=              0.5346

 ESP charges:
               1
     1  C    0.097105
     2  C   -0.144046
     3  C    0.077157
     4  C   -0.143912
     5  C    0.097046
     6  C   -0.074294
     7  H    0.111975
     8  H    0.111906
     9  H    0.105554
    10  C    0.078992
    11  C   -0.151229
    12  C   -0.151401
    13  C    0.075665
    14  H    0.115409
    15  C    0.075773
    16  H    0.115462
    17  C    0.100890
    18  Cl  -0.115320
    19  Cl  -0.115297
    20  Cl  -0.092376
    21  Cl  -0.082676
    22  Cl  -0.092384
 Sum of ESP charges =  -0.00000

 Normal termination of Gaussian 16 at Wed Sep 30 05:53:55 2020.
