 Gaussian 16, Revision A.03,

 ----------------------------------
 #P CAM-B3LYP/6-311+G** Opt SCF=XQC
 ----------------------------------

 -------------------------
 SDS geometry optimization
 -------------------------
 Symbolic Z-matrix:
 Charge = -1 Multiplicity = 1

 SCF Done:  E(RCAM-B3LYP) =  -1171.21627080     A.U. after   17 cycles
 SCF Done:  E(RCAM-B3LYP) =  -1171.27623527     A.U. after   14 cycles
 SCF Done:  E(RCAM-B3LYP) =  -1171.32218685     A.U. after   14 cycles
 SCF Done:  E(RCAM-B3LYP) =  -1171.32532813     A.U. after   13 cycles
 SCF Done:  E(RCAM-B3LYP) =  -1171.32804606     A.U. after   12 cycles
 SCF Done:  E(RCAM-B3LYP) =  -1171.32824339     A.U. after   11 cycles
 SCF Done:  E(RCAM-B3LYP) =  -1171.32825875     A.U. after   10 cycles
 SCF Done:  E(RCAM-B3LYP) =  -1171.32826133     A.U. after   10 cycles
 Optimization completed.
    -- Stationary point found.
 Normal termination of Gaussian 16 at Wed Sep 30 05:39:53 2020.

 -------------------------------------------------------
 #P CAM-B3LYP/6-311+G** Guess=Read Geom=Check Pop=CHelpG
 -------------------------------------------------------

 -----------------------
 SDS charge distribution
 -----------------------
 Structure from the checkpoint file:  "SDS.chk"
 Charge = -1 Multiplicity = 1

 SCF Done:  E(RCAM-B3LYP) =  -1171.32826133     A.U. after    1 cycles
 Normal termination of Gaussian 16 at Wed Sep 30 05:40:25 2020.

 ----------------------------------
 #P CAM-B3LYP/6-311+G** Opt SCF=XQC
 ----------------------------------

 -----------------------------
 Octanol geometry optimization
 -----------------------------
 Symbolic Z-matrix:
 Charge =  0 Multiplicity = 1

 SCF Done:  E(RCAM-B3LYP) =  -390.799723062     A.U. after   12 cycles
 SCF Done:  E(RCAM-B3LYP) =  -390.810408359     A.U. after   10 cycles
 SCF Done:  E(RCAM-B3LYP) =  -390.811489529     A.U. after   10 cycles
 SCF Done:  E(RCAM-B3LYP) =  -390.811528773     A.U. after    9 cycles
 SCF Done:  E(RCAM-B3LYP) =  -390.811530165     A.U. after    7 cycles
 Optimization completed.
    -- Stationary point found.
 Normal termination of Gaussian 16 at Wed Sep 30 05:46:25 2020.
 Gaussian 16:  ES64L-G16RevA.03 25-Dec-2016

 -------------------------------------------------------
 #P CAM-B3LYP/6-311+G** Guess=Read Geom=Check Pop=CHelpG
 -------------------------------------------------------

 ---------------------------
 Octanol charge distribution
 ---------------------------
 Structure from the checkpoint file:  "octanol.chk"
 Charge =  0 Multiplicity = 1

                         Standard orientation:
 ---------------------------------------------------------------------
 Center     Atomic      Atomic             Coordinates (Angstroms)
 Number     Number       Type             X           Y           Z
 ---------------------------------------------------------------------
      1          6           0       -5.073739   -0.351986   -0.000012
      2          1           0       -5.120390   -0.996693   -0.881872
      3          1           0       -5.967958    0.275162    0.000020
      4          1           0       -5.120380   -0.996767    0.881795
      5          6           0       -3.800539    0.487347    0.000018
      6          1           0       -3.796248    1.146111   -0.875332
      7          1           0       -3.796249    1.146053    0.875412
      8          6           0       -2.528077   -0.354708   -0.000008
      9          1           0       -2.532517   -1.014590   -0.875890
     10          1           0       -2.532510   -1.014630    0.875844
     11          6           0       -1.247805    0.474775    0.000004
     12          1           0       -1.244494    1.134364    0.876053
     13          1           0       -1.244483    1.134370   -0.876041
     14          6           0        0.023195   -0.368921    0.000008
     15          1           0        0.020679   -1.028256   -0.875780
     16          1           0        0.020688   -1.028230    0.875816
     17          6           0        1.303231    0.461493   -0.000010
     18          1           0        1.303910    1.120407    0.876494
     19          1           0        1.303909    1.120369   -0.876544
     20          6           0        2.569302   -0.389307    0.000008
     21          1           0        2.583760   -1.042733   -0.877761
     22          1           0        2.583760   -1.042696    0.877804
     23          6           0        3.834867    0.441390   -0.000011
     24          1           0        3.858202    1.087661    0.887136
     25          1           0        3.858200    1.087625   -0.887183
     26          8           0        4.947491   -0.444367    0.000006
     27          1           0        5.759591    0.066915   -0.000000
 ---------------------------------------------------------------------

 SCF Done:  E(RCAM-B3LYP) =  -390.811530165     A.U. after    1 cycles

 The electronic state is 1-A.
 Alpha  occ. eigenvalues --  -19.19345 -10.28734 -10.23696 -10.23404 -10.23385
 Alpha  occ. eigenvalues --  -10.23302 -10.23293 -10.23207 -10.22724  -1.10471
 Alpha  occ. eigenvalues --   -0.89900  -0.87355  -0.83234  -0.77929  -0.72009
 Alpha  occ. eigenvalues --   -0.66989  -0.65683  -0.65087  -0.58434  -0.56415
 Alpha  occ. eigenvalues --   -0.54579  -0.51484  -0.50342  -0.49443  -0.47489
 Alpha  occ. eigenvalues --   -0.47178  -0.43837  -0.43386  -0.43341  -0.40500
 Alpha  occ. eigenvalues --   -0.40176  -0.39736  -0.38869  -0.38660  -0.38323
 Alpha  occ. eigenvalues --   -0.36814  -0.34338
 Alpha virt. eigenvalues --    0.02960   0.03846   0.04528   0.04941   0.05289
 Alpha virt. eigenvalues --    0.06024   0.06906   0.06920   0.08161   0.08566
 Alpha virt. eigenvalues --    0.08948   0.09277   0.09481   0.10376   0.11160

 Mulliken charges:
               1
     1  C   -0.598698
     2  H    0.132895
     3  H    0.138806
     4  H    0.132895
     5  C   -0.239544
     6  H    0.136122
     7  H    0.136123
     8  C   -0.311086
     9  H    0.140069
    10  H    0.140068
    11  C   -0.140633
    12  H    0.141378
    13  H    0.141377
    14  C   -0.135853
    15  H    0.144851
    16  H    0.144851
    17  C   -0.128606
    18  H    0.140067
    19  H    0.140067
    20  C   -0.447553
    21  H    0.152038
    22  H    0.152038
    23  C   -0.302627
    24  H    0.130084
    25  H    0.130084
    26  O   -0.312573
    27  H    0.243360
 Sum of Mulliken charges =  -0.00000

 Dipole moment (field-independent basis, Debye):
    X=             -0.0799    Y=              1.7262    Z=             -0.0000  Tot=              1.7281
 Quadrupole moment (field-independent basis, Debye-Ang):
   XX=            -59.3775   YY=            -62.7327   ZZ=            -60.2149
   XY=              8.7347   XZ=             -0.0001   YZ=              0.0000

 ESP charges:
               1
     1  C   -0.223115
     2  H    0.044203
     3  H    0.047457
     4  H    0.044201
     5  C    0.214352
     6  H   -0.045702
     7  H   -0.045696
     8  C   -0.040588
     9  H   -0.001228
    10  H   -0.001232
    11  C    0.027583
    12  H   -0.017987
    13  H   -0.017984
    14  C    0.177741
    15  H   -0.047088
    16  H   -0.047084
    17  C   -0.174957
    18  H    0.017178
    19  H    0.017173
    20  C    0.120436
    21  H    0.000732
    22  H    0.000731
    23  C    0.356977
    24  H   -0.044960
    25  H   -0.044961
    26  O   -0.744236
    27  H    0.428056
 Sum of ESP charges =  -0.00000

 Normal termination of Gaussian 16 at Wed Sep 30 05:46:44 2020.
